MODEL 1
REMARK VINA RESULT:    -5.558      0.000      0.000
REMARK INTER + INTRA:         -11.015
REMARK INTER:                  -8.808
REMARK INTRA:                  -2.207
REMARK UNBOUND:                -2.207
REMARK  Name = 
REMARK  13 active torsions:
REMARK  status: ('A' for Active; 'I' for Inactive)
REMARK    1  A    between atoms: C_1  and  O_2
REMARK    2  A    between atoms: O_2  and  C_3
REMARK    3  A    between atoms: C_5  and  C_6
REMARK    4  A    between atoms: C_6  and  O_7
REMARK    5  A    between atoms: C_8  and  O_9
REMARK    6  A    between atoms: C_10  and  O_11
REMARK    7  A    between atoms: O_11  and  C_12
REMARK    8  A    between atoms: C_12  and  C_14
REMARK    9  A    between atoms: C_17  and  C_18
REMARK   10  A    between atoms: C_21  and  O_22
REMARK   11  A    between atoms: O_22  and  C_23
REMARK   12  A    between atoms: C_23  and  C_25
REMARK   13  A    between atoms: C_30  and  N_31
REMARK                            x       y       z     vdW  Elec       q    Type
REMARK                         _______ _______ _______ _____ _____    ______ ____
ROOT
ATOM      1  C   UNL     1     -20.312   8.955  -1.738  0.00  0.00    +0.200 C 
ATOM      2  O   UNL     1     -20.487   7.888  -0.801  0.00  0.00    -0.339 OA
ATOM      3  C   UNL     1     -19.827   6.674  -1.204  0.00  0.00    +0.114 C 
ATOM      4  C   UNL     1     -18.312   6.920  -1.249  0.00  0.00    +0.124 C 
ATOM      5  C   UNL     1     -18.023   8.071  -2.238  0.00  0.00    +0.173 C 
ATOM      6  C   UNL     1     -18.820   9.333  -1.867  0.00  0.00    +0.193 C 
ENDROOT
BRANCH   1   8
ATOM      7  C   UNL     1     -21.855   9.861  -0.190  0.00  0.00    +0.040 C 
ATOM      8  O   UNL     1     -21.037  10.112  -1.324  0.00  0.00    -0.351 OA
ENDBRANCH   1   8
BRANCH   4   9
ATOM      9  O   UNL     1     -17.833   7.241   0.067  0.00  0.00    -0.385 OA
ATOM     10  H   UNL     1     -17.789   6.431   0.600  0.00  0.00    +0.000 HD
ENDBRANCH   4   9
BRANCH   3  11
ATOM     11  C   UNL     1     -20.191   5.570  -0.201  0.00  0.00    +0.073 C 
BRANCH  11  12
ATOM     12  O   UNL     1     -19.077   4.703   0.028  0.00  0.00    -0.392 OA
ATOM     13  H   UNL     1     -19.299   3.806  -0.265  0.00  0.00    +0.000 HD
ENDBRANCH  11  12
ENDBRANCH   3  11
BRANCH   5  14
ATOM     14  O   UNL     1     -16.618   8.391  -2.275  0.00  0.00    -0.451 OA
BRANCH  14  15
ATOM     15  C   UNL     1     -16.021   8.279  -3.486  0.00  0.00    +0.340 C 
ATOM     16  O   UNL     1     -16.247   8.991  -4.452  0.00  0.00    -0.245 OA
BRANCH  15  17
ATOM     17  C   UNL     1     -15.058   7.148  -3.491  0.00  0.00    +0.059 A 
ATOM     18  C   UNL     1     -14.506   6.741  -2.271  0.00  0.00    -0.048 A 
ATOM     19  C   UNL     1     -13.599   5.679  -2.228  0.00  0.00    -0.058 A 
ATOM     20  C   UNL     1     -13.244   5.001  -3.400  0.00  0.00    -0.050 A 
ATOM     21  C   UNL     1     -12.247   3.881  -3.358  0.00  0.00    -0.040 C 
ATOM     22  C   UNL     1     -13.793   5.414  -4.621  0.00  0.00    -0.058 A 
ATOM     23  C   UNL     1     -14.699   6.477  -4.667  0.00  0.00    -0.048 A 
ENDBRANCH  15  17
ENDBRANCH  14  15
ENDBRANCH   5  14
BRANCH   6  24
ATOM     24  O   UNL     1     -18.351   9.851  -0.592  0.00  0.00    -0.449 OA
BRANCH  24  25
ATOM     25  C   UNL     1     -17.807  11.088  -0.625  0.00  0.00    +0.342 C 
ATOM     26  O   UNL     1     -17.653  11.813  -1.592  0.00  0.00    -0.245 OA
BRANCH  25  27
ATOM     27  C   UNL     1     -17.388  11.471   0.733  0.00  0.00    +0.089 A 
ATOM     28  C   UNL     1     -18.157  12.388   1.462  0.00  0.00    -0.046 A 
ATOM     29  C   UNL     1     -17.813  12.701   2.781  0.00  0.00    -0.061 A 
ATOM     30  C   UNL     1     -16.711  12.092   3.386  0.00  0.00    -0.060 A 
ATOM     31  C   UNL     1     -15.943  11.170   2.674  0.00  0.00    -0.031 A 
ATOM     32  C   UNL     1     -16.291  10.868   1.350  0.00  0.00    +0.140 A 
BRANCH  32  33
ATOM     33  N   UNL     1     -15.449   9.940   0.620  0.00  0.00    +0.057 N 
ATOM     34  O   UNL     1     -15.670   8.732   0.782  0.00  0.00    -0.126 OA
ATOM     35  O   UNL     1     -14.620  10.428  -0.159  0.00  0.00    -0.126 OA
ENDBRANCH  32  33
ENDBRANCH  25  27
ENDBRANCH  24  25
ENDBRANCH   6  24
TORSDOF 11
ENDMDL
MODEL 2
REMARK VINA RESULT:    -5.510      1.475      2.193
REMARK INTER + INTRA:         -10.937
REMARK INTER:                  -9.201
REMARK INTRA:                  -1.737
REMARK UNBOUND:                -2.207
REMARK  Name = 
REMARK  13 active torsions:
REMARK  status: ('A' for Active; 'I' for Inactive)
REMARK    1  A    between atoms: C_1  and  O_2
REMARK    2  A    between atoms: O_2  and  C_3
REMARK    3  A    between atoms: C_5  and  C_6
REMARK    4  A    between atoms: C_6  and  O_7
REMARK    5  A    between atoms: C_8  and  O_9
REMARK    6  A    between atoms: C_10  and  O_11
REMARK    7  A    between atoms: O_11  and  C_12
REMARK    8  A    between atoms: C_12  and  C_14
REMARK    9  A    between atoms: C_17  and  C_18
REMARK   10  A    between atoms: C_21  and  O_22
REMARK   11  A    between atoms: O_22  and  C_23
REMARK   12  A    between atoms: C_23  and  C_25
REMARK   13  A    between atoms: C_30  and  N_31
REMARK                            x       y       z     vdW  Elec       q    Type
REMARK                         _______ _______ _______ _____ _____    ______ ____
ROOT
ATOM      1  C   UNL     1     -19.353   9.016  -1.747  0.00  0.00    +0.200 C 
ATOM      2  O   UNL     1     -19.684   7.933  -0.871  0.00  0.00    -0.339 OA
ATOM      3  C   UNL     1     -18.930   6.739  -1.148  0.00  0.00    +0.114 C 
ATOM      4  C   UNL     1     -17.442   7.017  -0.891  0.00  0.00    +0.124 C 
ATOM      5  C   UNL     1     -16.991   8.188  -1.794  0.00  0.00    +0.173 C 
ATOM      6  C   UNL     1     -17.875   9.427  -1.576  0.00  0.00    +0.193 C 
ENDROOT
BRANCH   1   8
ATOM      7  C   UNL     1     -21.279   9.834  -0.640  0.00  0.00    +0.040 C 
ATOM      8  O   UNL     1     -20.172  10.152  -1.473  0.00  0.00    -0.351 OA
ENDBRANCH   1   8
BRANCH   4   9
ATOM      9  O   UNL     1     -17.239   7.330   0.495  0.00  0.00    -0.385 OA
ATOM     10  H   UNL     1     -17.663   6.652   1.044  0.00  0.00    +0.000 HD
ENDBRANCH   4   9
BRANCH   3  11
ATOM     11  C   UNL     1     -19.459   5.614  -0.246  0.00  0.00    +0.073 C 
BRANCH  11  12
ATOM     12  O   UNL     1     -20.874   5.468  -0.391  0.00  0.00    -0.392 OA
ATOM     13  H   UNL     1     -21.141   5.767  -1.273  0.00  0.00    +0.000 HD
ENDBRANCH  11  12
ENDBRANCH   3  11
BRANCH   5  14
ATOM     14  O   UNL     1     -15.614   8.537  -1.551  0.00  0.00    -0.451 OA
BRANCH  14  15
ATOM     15  C   UNL     1     -14.809   8.545  -2.640  0.00  0.00    +0.340 C 
ATOM     16  O   UNL     1     -14.608   9.511  -3.362  0.00  0.00    -0.245 OA
BRANCH  15  17
ATOM     17  C   UNL     1     -14.210   7.204  -2.858  0.00  0.00    +0.059 A 
ATOM     18  C   UNL     1     -14.250   6.661  -4.148  0.00  0.00    -0.048 A 
ATOM     19  C   UNL     1     -13.695   5.404  -4.401  0.00  0.00    -0.058 A 
ATOM     20  C   UNL     1     -13.080   4.681  -3.373  0.00  0.00    -0.050 A 
ATOM     21  C   UNL     1     -12.512   3.318  -3.637  0.00  0.00    -0.040 C 
ATOM     22  C   UNL     1     -13.046   5.223  -2.081  0.00  0.00    -0.058 A 
ATOM     23  C   UNL     1     -13.602   6.480  -1.825  0.00  0.00    -0.048 A 
ENDBRANCH  15  17
ENDBRANCH  14  15
ENDBRANCH   5  14
BRANCH   6  24
ATOM     24  O   UNL     1     -17.678   9.937  -0.229  0.00  0.00    -0.449 OA
BRANCH  24  25
ATOM     25  C   UNL     1     -17.031  11.122  -0.139  0.00  0.00    +0.342 C 
ATOM     26  O   UNL     1     -16.575  11.797  -1.044  0.00  0.00    -0.245 OA
BRANCH  25  27
ATOM     27  C   UNL     1     -16.930  11.513   1.277  0.00  0.00    +0.089 A 
ATOM     28  C   UNL     1     -15.941  10.938   2.086  0.00  0.00    -0.046 A 
ATOM     29  C   UNL     1     -15.785  11.359   3.410  0.00  0.00    -0.061 A 
ATOM     30  C   UNL     1     -16.603  12.364   3.932  0.00  0.00    -0.060 A 
ATOM     31  C   UNL     1     -17.585  12.952   3.133  0.00  0.00    -0.031 A 
ATOM     32  C   UNL     1     -17.739  12.519   1.809  0.00  0.00    +0.140 A 
BRANCH  32  33
ATOM     33  N   UNL     1     -18.796  13.116   1.016  0.00  0.00    +0.057 N 
ATOM     34  O   UNL     1     -19.901  12.558   1.038  0.00  0.00    -0.126 OA
ATOM     35  O   UNL     1     -18.529  14.176   0.433  0.00  0.00    -0.126 OA
ENDBRANCH  32  33
ENDBRANCH  25  27
ENDBRANCH  24  25
ENDBRANCH   6  24
TORSDOF 11
ENDMDL
MODEL 3
REMARK VINA RESULT:    -5.193      4.050      8.337
REMARK INTER + INTRA:         -10.436
REMARK INTER:                  -8.478
REMARK INTRA:                  -1.957
REMARK UNBOUND:                -2.207
REMARK  Name = 
REMARK  13 active torsions:
REMARK  status: ('A' for Active; 'I' for Inactive)
REMARK    1  A    between atoms: C_1  and  O_2
REMARK    2  A    between atoms: O_2  and  C_3
REMARK    3  A    between atoms: C_5  and  C_6
REMARK    4  A    between atoms: C_6  and  O_7
REMARK    5  A    between atoms: C_8  and  O_9
REMARK    6  A    between atoms: C_10  and  O_11
REMARK    7  A    between atoms: O_11  and  C_12
REMARK    8  A    between atoms: C_12  and  C_14
REMARK    9  A    between atoms: C_17  and  C_18
REMARK   10  A    between atoms: C_21  and  O_22
REMARK   11  A    between atoms: O_22  and  C_23
REMARK   12  A    between atoms: C_23  and  C_25
REMARK   13  A    between atoms: C_30  and  N_31
REMARK                            x       y       z     vdW  Elec       q    Type
REMARK                         _______ _______ _______ _____ _____    ______ ____
ROOT
ATOM      1  C   UNL     1     -22.370  11.801  -2.134  0.00  0.00    +0.200 C 
ATOM      2  O   UNL     1     -22.280  12.148  -0.749  0.00  0.00    -0.339 OA
ATOM      3  C   UNL     1     -23.488  11.860  -0.020  0.00  0.00    +0.114 C 
ATOM      4  C   UNL     1     -23.731  10.344  -0.035  0.00  0.00    +0.124 C 
ATOM      5  C   UNL     1     -23.834   9.871  -1.503  0.00  0.00    +0.173 C 
ATOM      6  C   UNL     1     -22.589  10.282  -2.306  0.00  0.00    +0.193 C 
ENDROOT
BRANCH   1   8
ATOM      7  C   UNL     1     -21.305  12.056  -4.233  0.00  0.00    +0.040 C 
ATOM      8  O   UNL     1     -21.173  12.165  -2.822  0.00  0.00    -0.351 OA
ENDBRANCH   1   8
BRANCH   4   9
ATOM      9  O   UNL     1     -22.659   9.674   0.646  0.00  0.00    -0.385 OA
ATOM     10  H   UNL     1     -22.169   9.124   0.014  0.00  0.00    +0.000 HD
ENDBRANCH   4   9
BRANCH   3  11
ATOM     11  C   UNL     1     -23.327  12.393   1.411  0.00  0.00    +0.073 C 
BRANCH  11  12
ATOM     12  O   UNL     1     -23.913  11.495   2.357  0.00  0.00    -0.392 OA
ATOM     13  H   UNL     1     -23.451  10.643   2.325  0.00  0.00    +0.000 HD
ENDBRANCH  11  12
ENDBRANCH   3  11
BRANCH   5  14
ATOM     14  O   UNL     1     -23.999   8.441  -1.582  0.00  0.00    -0.451 OA
BRANCH  14  15
ATOM     15  C   UNL     1     -25.130   8.013  -2.194  0.00  0.00    +0.340 C 
ATOM     16  O   UNL     1     -25.442   8.258  -3.350  0.00  0.00    -0.245 OA
BRANCH  15  17
ATOM     17  C   UNL     1     -25.962   7.215  -1.258  0.00  0.00    +0.059 A 
ATOM     18  C   UNL     1     -26.146   5.854  -1.530  0.00  0.00    -0.048 A 
ATOM     19  C   UNL     1     -26.918   5.063  -0.674  0.00  0.00    -0.058 A 
ATOM     20  C   UNL     1     -27.501   5.618   0.470  0.00  0.00    -0.050 A 
ATOM     21  C   UNL     1     -28.354   4.776   1.372  0.00  0.00    -0.040 C 
ATOM     22  C   UNL     1     -27.321   6.981   0.738  0.00  0.00    -0.058 A 
ATOM     23  C   UNL     1     -26.551   7.775  -0.117  0.00  0.00    -0.048 A 
ENDBRANCH  15  17
ENDBRANCH  14  15
ENDBRANCH   5  14
BRANCH   6  24
ATOM     24  O   UNL     1     -21.424   9.575  -1.799  0.00  0.00    -0.449 OA
BRANCH  24  25
ATOM     25  C   UNL     1     -20.948   8.585  -2.588  0.00  0.00    +0.342 C 
ATOM     26  O   UNL     1     -20.989   8.511  -3.803  0.00  0.00    -0.245 OA
BRANCH  25  27
ATOM     27  C   UNL     1     -20.347   7.539  -1.745  0.00  0.00    +0.089 A 
ATOM     28  C   UNL     1     -21.112   6.427  -1.369  0.00  0.00    -0.046 A 
ATOM     29  C   UNL     1     -20.529   5.389  -0.635  0.00  0.00    -0.061 A 
ATOM     30  C   UNL     1     -19.179   5.447  -0.282  0.00  0.00    -0.060 A 
ATOM     31  C   UNL     1     -18.403   6.544  -0.659  0.00  0.00    -0.031 A 
ATOM     32  C   UNL     1     -18.998   7.583  -1.389  0.00  0.00    +0.140 A 
BRANCH  32  33
ATOM     33  N   UNL     1     -18.179   8.730  -1.728  0.00  0.00    +0.057 N 
ATOM     34  O   UNL     1     -17.694   8.760  -2.867  0.00  0.00    -0.126 OA
ATOM     35  O   UNL     1     -18.084   9.624  -0.875  0.00  0.00    -0.126 OA
ENDBRANCH  32  33
ENDBRANCH  25  27
ENDBRANCH  24  25
ENDBRANCH   6  24
TORSDOF 11
ENDMDL
